# vtk DataFile Version 3.1 
this is an example file created for VisuSimple
ASCII
DATASET UNSTRUCTURED_GRID
POINTS 9 FLOAT 
0 0 0
0 1 0
0 2 0
1 2 0
1 1 0
1 0 0
2 0 0
2 1 0
2 2 0

CELLS 4 20
4 0 5 4 1
4 1 4 3 2
4 5 6 7 4
4 4 7 8 3

CELL_TYPES 4
9 9 9 9

POINT_DATA 9
SCALARS HorizontalSpeed float 
LOOKUP_TABLE default
0
0
0
1
2
1
0
0
0

SCALARS Temperature float 
LOOKUP_TABLE default
1
1.1
1.2
2.1
2.5
3.5
1.3
1.4
1.6

